Formula,pbe_band_gap,url
Fe2O6, 0.00 eV ,http://www.mathub2d.net//materials/detail/5f476358d5cc1b8bc6418fb5
I2Ni1, 0.00 eV ,http://www.mathub2d.net//materials/detail/5f476357d5cc1b8bc6418cbd
I6Re2, 0.00 eV ,http://www.mathub2d.net//materials/detail/5f476358d5cc1b8bc6418cf8
C1Nb2O2, 0.00 eV ,http://www.mathub2d.net//materials/detail/5f476357d5cc1b8bc6418b29
C1H2O2Ta2, 0.00 eV ,http://www.mathub2d.net//materials/detail/5f476357d5cc1b8bc6418b1a
C1F2Mn2, 0.00 eV ,http://www.mathub2d.net//materials/detail/5f476357d5cc1b8bc6418b0a
Cl2Zr1, 0.00 eV ,http://www.mathub2d.net//materials/detail/5f476357d5cc1b8bc6418bc9
Ir1Se2, 0.00 eV ,http://www.mathub2d.net//materials/detail/5f476358d5cc1b8bc6418d22
Nb1O2, 0.00 eV ,http://www.mathub2d.net//materials/detail/5f476358d5cc1b8bc6418d57
Cl2O2Ti2, 0.00 eV ,http://www.mathub2d.net//materials/detail/5f476358d5cc1b8bc6418f5f
Cr3O8, 0.00 eV ,http://www.mathub2d.net//materials/detail/5f476357d5cc1b8bc6418c2e
Bi2Sn6, 0.00 eV ,http://www.mathub2d.net//materials/detail/5f476357d5cc1b8bc6418a79
Nb1S2, 0.00 eV ,http://www.mathub2d.net//materials/detail/5f476358d5cc1b8bc6418d5a
Nb1O2, 0.00 eV ,http://www.mathub2d.net//materials/detail/5f476358d5cc1b8bc6418d56
Fe2S4, 0.00 eV ,http://www.mathub2d.net//materials/detail/5f476358d5cc1b8bc6418fb6
Au2S2, 0.00 eV ,http://www.mathub2d.net//materials/detail/5f476357d5cc1b8bc6418a4e
Cl6Ta2, 0.00 eV ,http://www.mathub2d.net//materials/detail/5f476357d5cc1b8bc6418bf6
Br2O2Os2, 0.00 eV ,http://www.mathub2d.net//materials/detail/5f476358d5cc1b8bc6418ece
Fe2P2Se6, 0.00 eV ,http://www.mathub2d.net//materials/detail/5f476357d5cc1b8bc6418c51
Br2Mo2N2, 0.00 eV ,http://www.mathub2d.net//materials/detail/5f476358d5cc1b8bc6418eb4
Ni1S2, 0.00 eV ,http://www.mathub2d.net//materials/detail/5f476358d5cc1b8bc6418d66
Br2Ge2S2, 0.00 eV ,http://www.mathub2d.net//materials/detail/5f476358d5cc1b8bc6418e9d
Br2Sc1, 0.00 eV ,http://www.mathub2d.net//materials/detail/5f476357d5cc1b8bc6418ab3
Bi2C6, 0.00 eV ,http://www.mathub2d.net//materials/detail/5f476357d5cc1b8bc6418a65
Cl2Se2W2, 0.00 eV ,http://www.mathub2d.net//materials/detail/5f476358d5cc1b8bc6418f7f
Br2Pd2S2, 0.00 eV ,http://www.mathub2d.net//materials/detail/5f476358d5cc1b8bc6418ee0
N2Nb1, 0.00 eV ,http://www.mathub2d.net//materials/detail/5f476358d5cc1b8bc6418d4c
Br6Ir2, 0.00 eV ,http://www.mathub2d.net//materials/detail/5f476357d5cc1b8bc6418ada
Br2O2Sn2, 0.00 eV ,http://www.mathub2d.net//materials/detail/5f476358d5cc1b8bc6418ed5
I6Ru2, 0.00 eV ,http://www.mathub2d.net//materials/detail/5f476358d5cc1b8bc6418cfc
Cl2Hg2N2, 0.00 eV ,http://www.mathub2d.net//materials/detail/5f476358d5cc1b8bc6418f2b
Cl2Ru2Se2, 0.00 eV ,http://www.mathub2d.net//materials/detail/5f476358d5cc1b8bc6418f70
O2Ta2, 0.00 eV ,http://www.mathub2d.net//materials/detail/5f476358d5cc1b8bc6418d90
Cu1S2, 0.00 eV ,http://www.mathub2d.net//materials/detail/5f476357d5cc1b8bc6418c35
Cl2Se2Sn2, 0.00 eV ,http://www.mathub2d.net//materials/detail/5f476358d5cc1b8bc6418f7a
Ru1S2, 0.00 eV ,http://www.mathub2d.net//materials/detail/5f476358d5cc1b8bc6418de3
Pd1Te2, 0.00 eV ,http://www.mathub2d.net//materials/detail/5f476358d5cc1b8bc6418dc2
Cl6Mo2, 0.00 eV ,http://www.mathub2d.net//materials/detail/5f476357d5cc1b8bc6418bdf
Cl2Pb2S2, 0.00 eV ,http://www.mathub2d.net//materials/detail/5f476358d5cc1b8bc6418f66
Cl6V2, 0.00 eV ,http://www.mathub2d.net//materials/detail/5f476357d5cc1b8bc6418bfc
Hg1O2, 0.00 eV ,http://www.mathub2d.net//materials/detail/5f476357d5cc1b8bc6418ca5
Co2I2S2, 0.00 eV ,http://www.mathub2d.net//materials/detail/5f476358d5cc1b8bc6418f96
Ag2Cl6, 0.00 eV ,http://www.mathub2d.net//materials/detail/5f476357d5cc1b8bc6418a08
O2Re2, 0.00 eV ,http://www.mathub2d.net//materials/detail/5f476358d5cc1b8bc6418d82
Au2I2S2, 0.00 eV ,http://www.mathub2d.net//materials/detail/5f476358d5cc1b8bc6418e70
Cl2Nb2S2, 0.00 eV ,http://www.mathub2d.net//materials/detail/5f476358d5cc1b8bc6418f50
Al1Br2, 0.00 eV ,http://www.mathub2d.net//materials/detail/5f476357d5cc1b8bc6418a0e
C2O2V3, 0.00 eV ,http://www.mathub2d.net//materials/detail/5f476357d5cc1b8bc6418b68
C2Ti3, 0.00 eV ,http://www.mathub2d.net//materials/detail/5f476357d5cc1b8bc6418b6f
Br2Hg2N2, 0.00 eV ,http://www.mathub2d.net//materials/detail/5f476358d5cc1b8bc6418ea3
Al2I2N2, 0.00 eV ,http://www.mathub2d.net//materials/detail/5f476358d5cc1b8bc6418e5a
Cl2Cu2Se2, 0.00 eV ,http://www.mathub2d.net//materials/detail/5f476358d5cc1b8bc6418f17
Cl2Re1, 0.00 eV ,http://www.mathub2d.net//materials/detail/5f476357d5cc1b8bc6418bac
Au2Cl2N2, 0.00 eV ,http://www.mathub2d.net//materials/detail/5f476358d5cc1b8bc6418e69
Pt2Te2, 0.00 eV ,http://www.mathub2d.net//materials/detail/5f476358d5cc1b8bc6418dcf
C1F2V2, 0.00 eV ,http://www.mathub2d.net//materials/detail/5f476357d5cc1b8bc6418b11
Os1Se2, 0.00 eV ,http://www.mathub2d.net//materials/detail/5f476358d5cc1b8bc6418da4
Cl2N1Sc2, 0.00 eV ,http://www.mathub2d.net//materials/detail/5f476357d5cc1b8bc6418b9f
Br2N2Os2, 0.00 eV ,http://www.mathub2d.net//materials/detail/5f476358d5cc1b8bc6418eba
Br2Sc1, 0.00 eV ,http://www.mathub2d.net//materials/detail/5f476357d5cc1b8bc6418ab4
Au1O2, 0.00 eV ,http://www.mathub2d.net//materials/detail/5f476357d5cc1b8bc6418a40
Ag2I6, 0.00 eV ,http://www.mathub2d.net//materials/detail/5f476357d5cc1b8bc6418a0c
Re1Te2, 0.00 eV ,http://www.mathub2d.net//materials/detail/5f476358d5cc1b8bc6418dd7
Hg1O1, 0.00 eV ,http://www.mathub2d.net//materials/detail/5f476357d5cc1b8bc6418ca4
C1Mn2, 0.00 eV ,http://www.mathub2d.net//materials/detail/5f476357d5cc1b8bc6418b24
Br2N2Tl2, 0.00 eV ,http://www.mathub2d.net//materials/detail/5f476358d5cc1b8bc6418ec4
Co2I2N2, 0.00 eV ,http://www.mathub2d.net//materials/detail/5f476358d5cc1b8bc6418f94
Co2Te6, 0.00 eV ,http://www.mathub2d.net//materials/detail/5f476358d5cc1b8bc6418f9d
O2V1, 0.00 eV ,http://www.mathub2d.net//materials/detail/5f476358d5cc1b8bc6418d97
C2H2O2W3, 0.00 eV ,http://www.mathub2d.net//materials/detail/5f476357d5cc1b8bc6418b59
C2H2O2Ta3, 0.00 eV ,http://www.mathub2d.net//materials/detail/5f476357d5cc1b8bc6418b56
C1H2Hf2O2, 0.00 eV ,http://www.mathub2d.net//materials/detail/5f476357d5cc1b8bc6418b15
Br6V2, 0.00 eV ,http://www.mathub2d.net//materials/detail/5f476357d5cc1b8bc6418af9
O2Pd2, 0.00 eV ,http://www.mathub2d.net//materials/detail/5f476358d5cc1b8bc6418d7c
Ga2S4Ti1, 0.00 eV ,http://www.mathub2d.net//materials/detail/5f476357d5cc1b8bc6418c63
Br6Pd2, 0.00 eV ,http://www.mathub2d.net//materials/detail/5f476357d5cc1b8bc6418ae5
Pb1Te2, 0.00 eV ,http://www.mathub2d.net//materials/detail/5f476358d5cc1b8bc6418dbb
Hg1S1, 0.00 eV ,http://www.mathub2d.net//materials/detail/5f476357d5cc1b8bc6418ca7
Co2I2O2, 0.00 eV ,http://www.mathub2d.net//materials/detail/5f476358d5cc1b8bc6418f95
C2Mn3O2, 0.00 eV ,http://www.mathub2d.net//materials/detail/5f476357d5cc1b8bc6418b60
C2Cr3, 0.00 eV ,http://www.mathub2d.net//materials/detail/5f476357d5cc1b8bc6418b3c
S2Ti2, 0.00 eV ,http://www.mathub2d.net//materials/detail/5f476358d5cc1b8bc6418dfd
Br2Hf2S2, 0.00 eV ,http://www.mathub2d.net//materials/detail/5f476358d5cc1b8bc6418ea1
C1Ta2, 0.00 eV ,http://www.mathub2d.net//materials/detail/5f476357d5cc1b8bc6418b34
Se2Ta2, 0.00 eV ,http://www.mathub2d.net//materials/detail/5f476358d5cc1b8bc6418e1d
C2Mn3, 0.00 eV ,http://www.mathub2d.net//materials/detail/5f476357d5cc1b8bc6418b5f
Cr1O2, 0.00 eV ,http://www.mathub2d.net//materials/detail/5f476357d5cc1b8bc6418c22
Au1Cl2, 0.00 eV ,http://www.mathub2d.net//materials/detail/5f476357d5cc1b8bc6418a3b
Au1Se2, 0.00 eV ,http://www.mathub2d.net//materials/detail/5f476357d5cc1b8bc6418a43
Br2N2Ru2, 0.00 eV ,http://www.mathub2d.net//materials/detail/5f476358d5cc1b8bc6418ebf
Co1Ga2Te4, 0.00 eV ,http://www.mathub2d.net//materials/detail/5f476357d5cc1b8bc6418c0c
Cl2Cu2S2, 0.00 eV ,http://www.mathub2d.net//materials/detail/5f476358d5cc1b8bc6418f16
Cl2N2Pd2, 0.00 eV ,http://www.mathub2d.net//materials/detail/5f476358d5cc1b8bc6418f43
C2F2Y3, 0.00 eV ,http://www.mathub2d.net//materials/detail/5f476357d5cc1b8bc6418b4a
Te2W1, 0.00 eV ,http://www.mathub2d.net//materials/detail/5f476358d5cc1b8bc6418e3c
Mn1S2, 0.00 eV ,http://www.mathub2d.net//materials/detail/5f476358d5cc1b8bc6418d2d
Cl2Se2Ti2, 0.00 eV ,http://www.mathub2d.net//materials/detail/5f476358d5cc1b8bc6418f7c
Hg1S2, 0.00 eV ,http://www.mathub2d.net//materials/detail/5f476357d5cc1b8bc6418ca8
Cu2I2N2, 0.00 eV ,http://www.mathub2d.net//materials/detail/5f476358d5cc1b8bc6418fa9
Cr2Te6, 0.00 eV ,http://www.mathub2d.net//materials/detail/5f476358d5cc1b8bc6418fa8
Br2In2N2, 0.00 eV ,http://www.mathub2d.net//materials/detail/5f476358d5cc1b8bc6418ea7
I2Mn1, 0.00 eV ,http://www.mathub2d.net//materials/detail/5f476357d5cc1b8bc6418cb6
Br2Hg2O2, 0.00 eV ,http://www.mathub2d.net//materials/detail/5f476358d5cc1b8bc6418ea4
Ni2Se2, 0.00 eV ,http://www.mathub2d.net//materials/detail/5f476358d5cc1b8bc6418d6e
I2Y1, 0.00 eV ,http://www.mathub2d.net//materials/detail/5f476358d5cc1b8bc6418cdf
Br2N2Rh2, 0.00 eV ,http://www.mathub2d.net//materials/detail/5f476358d5cc1b8bc6418ebe
Pt2Se2, 0.00 eV ,http://www.mathub2d.net//materials/detail/5f476358d5cc1b8bc6418dce
Ag2I6, 0.00 eV ,http://www.mathub2d.net//materials/detail/5f476357d5cc1b8bc6418a0b
Nb1S1Se1, 0.00 eV ,http://www.mathub2d.net//materials/detail/5f476358d5cc1b8bc6418d58
I2Ru1, 0.00 eV ,http://www.mathub2d.net//materials/detail/5f476358d5cc1b8bc6418ccb
I2Os1, 0.00 eV ,http://www.mathub2d.net//materials/detail/5f476357d5cc1b8bc6418cbf
Cu1S2, 0.00 eV ,http://www.mathub2d.net//materials/detail/5f476357d5cc1b8bc6418c34
C2F2Sc3, 0.00 eV ,http://www.mathub2d.net//materials/detail/5f476357d5cc1b8bc6418b45
Cl2N2W2, 0.00 eV ,http://www.mathub2d.net//materials/detail/5f476358d5cc1b8bc6418f4d
Hg1Se2, 0.00 eV ,http://www.mathub2d.net//materials/detail/5f476357d5cc1b8bc6418cab
Br6Ni2, 0.00 eV ,http://www.mathub2d.net//materials/detail/5f476357d5cc1b8bc6418ae2
Mo2N2, 0.00 eV ,http://www.mathub2d.net//materials/detail/5f476358d5cc1b8bc6418d42
Cl2Ga2N2, 0.00 eV ,http://www.mathub2d.net//materials/detail/5f476358d5cc1b8bc6418f1f
Br6Mo2, 0.00 eV ,http://www.mathub2d.net//materials/detail/5f476357d5cc1b8bc6418add
Br2S2Sn2, 0.00 eV ,http://www.mathub2d.net//materials/detail/5f476358d5cc1b8bc6418ee9
Si2, 0.00 eV ,http://www.mathub2d.net//materials/detail/5f476358d5cc1b8bc6418e2c
Br2Cr1, 0.00 eV ,http://www.mathub2d.net//materials/detail/5f476357d5cc1b8bc6418a85
Ag2Br2Se2, 0.00 eV ,http://www.mathub2d.net//materials/detail/5f476358d5cc1b8bc6418e46
Au1Cl2, 0.00 eV ,http://www.mathub2d.net//materials/detail/5f476357d5cc1b8bc6418a3a
Mn1Se2, 0.00 eV ,http://www.mathub2d.net//materials/detail/5f476358d5cc1b8bc6418d2f
Cl2Se2Zr2, 0.00 eV ,http://www.mathub2d.net//materials/detail/5f476358d5cc1b8bc6418f80
I6V2, 0.00 eV ,http://www.mathub2d.net//materials/detail/5f476358d5cc1b8bc6418d08
Fe2Te4, 0.00 eV ,http://www.mathub2d.net//materials/detail/5f476358d5cc1b8bc6418fba
Br6Mn2, 0.00 eV ,http://www.mathub2d.net//materials/detail/5f476357d5cc1b8bc6418adc
Cl2Sc2, 0.00 eV ,http://www.mathub2d.net//materials/detail/5f476357d5cc1b8bc6418bb4
Co1I2, 0.00 eV ,http://www.mathub2d.net//materials/detail/5f476357d5cc1b8bc6418c0e
Ni1Te2, 0.00 eV ,http://www.mathub2d.net//materials/detail/5f476358d5cc1b8bc6418d69
Br6Pt2, 0.00 eV ,http://www.mathub2d.net//materials/detail/5f476357d5cc1b8bc6418ae8
I6Nb2, 0.00 eV ,http://www.mathub2d.net//materials/detail/5f476358d5cc1b8bc6418cef
Ag1Br2, 0.00 eV ,http://www.mathub2d.net//materials/detail/5f476353d5cc1b8bc64189fc
Br6Mo2, 0.00 eV ,http://www.mathub2d.net//materials/detail/5f476357d5cc1b8bc6418ade
Cl6Co2, 0.00 eV ,http://www.mathub2d.net//materials/detail/5f476357d5cc1b8bc6418bcb
O2V1, 0.00 eV ,http://www.mathub2d.net//materials/detail/5f476358d5cc1b8bc6418d96
Cl2O1Os1, 0.00 eV ,http://www.mathub2d.net//materials/detail/5f476358d5cc1b8bc6418f55
Mo1Se2, 0.00 eV ,http://www.mathub2d.net//materials/detail/5f476358d5cc1b8bc6418d3e
Cl6Fe2, 0.00 eV ,http://www.mathub2d.net//materials/detail/5f476357d5cc1b8bc6418bd4
Cl2Co2N2, 0.00 eV ,http://www.mathub2d.net//materials/detail/5f476358d5cc1b8bc6418f0c
P2Pb6, 0.00 eV ,http://www.mathub2d.net//materials/detail/5f476358d5cc1b8bc6418dac
Co1Ga2Se4, 0.00 eV ,http://www.mathub2d.net//materials/detail/5f476357d5cc1b8bc6418c0b
I6V2, 0.00 eV ,http://www.mathub2d.net//materials/detail/5f476358d5cc1b8bc6418d07
Ni2O2, 0.00 eV ,http://www.mathub2d.net//materials/detail/5f476358d5cc1b8bc6418d6b
Cl2Tl1, 0.00 eV ,http://www.mathub2d.net//materials/detail/5f476357d5cc1b8bc6418bbf
Fe1I2, 0.00 eV ,http://www.mathub2d.net//materials/detail/5f476357d5cc1b8bc6418c46
Co1Ga2S4, 0.00 eV ,http://www.mathub2d.net//materials/detail/5f476357d5cc1b8bc6418c06
C1Nb2S2, 0.00 eV ,http://www.mathub2d.net//materials/detail/5f476357d5cc1b8bc6418b2a
Br2Mn2S2, 0.00 eV ,http://www.mathub2d.net//materials/detail/5f476358d5cc1b8bc6418eb2
Hf2Se2, 0.00 eV ,http://www.mathub2d.net//materials/detail/5f476357d5cc1b8bc6418ca0
Bi2I2N2, 0.00 eV ,http://www.mathub2d.net//materials/detail/5f476358d5cc1b8bc6418e7f
Br6Ru2, 0.00 eV ,http://www.mathub2d.net//materials/detail/5f476357d5cc1b8bc6418aed
Cl2Ge2Se2, 0.00 eV ,http://www.mathub2d.net//materials/detail/5f476358d5cc1b8bc6418f26
Br2Mo1, 0.00 eV ,http://www.mathub2d.net//materials/detail/5f476357d5cc1b8bc6418a9e
N1Zr1, 0.00 eV ,http://www.mathub2d.net//materials/detail/5f476358d5cc1b8bc6418d4a
C2Zr3, 0.00 eV ,http://www.mathub2d.net//materials/detail/5f476357d5cc1b8bc6418b73
Br2Nb2O2, 0.00 eV ,http://www.mathub2d.net//materials/detail/5f476358d5cc1b8bc6418ec8
I2Ir1, 0.00 eV ,http://www.mathub2d.net//materials/detail/5f476357d5cc1b8bc6418cb3
Cl2N2Nb2, 0.00 eV ,http://www.mathub2d.net//materials/detail/5f476358d5cc1b8bc6418f3f
Br2W1, 0.00 eV ,http://www.mathub2d.net//materials/detail/5f476357d5cc1b8bc6418ac2
Cl2Tl1, 0.00 eV ,http://www.mathub2d.net//materials/detail/5f476357d5cc1b8bc6418bbe
Fe1S2, 0.00 eV ,http://www.mathub2d.net//materials/detail/5f476357d5cc1b8bc6418c49
C1F2W2, 0.00 eV ,http://www.mathub2d.net//materials/detail/5f476357d5cc1b8bc6418b12
Au2O2, 0.00 eV ,http://www.mathub2d.net//materials/detail/5f476357d5cc1b8bc6418a4d
Cl2Hf2O2, 0.00 eV ,http://www.mathub2d.net//materials/detail/5f476358d5cc1b8bc6418f28
Sb6Te6, 0.00 eV ,http://www.mathub2d.net//materials/detail/5f476358d5cc1b8bc6418e10
Cl2Ru2S2, 0.00 eV ,http://www.mathub2d.net//materials/detail/5f476358d5cc1b8bc6418f6f
O2Ti1, 0.00 eV ,http://www.mathub2d.net//materials/detail/5f476358d5cc1b8bc6418d93
C1F2Zr2, 0.00 eV ,http://www.mathub2d.net//materials/detail/5f476357d5cc1b8bc6418b14
Br2Nb2Se2, 0.00 eV ,http://www.mathub2d.net//materials/detail/5f476358d5cc1b8bc6418eca
Fe2Te2, 0.00 eV ,http://www.mathub2d.net//materials/detail/5f476357d5cc1b8bc6418c54
Br2Se2Sn2, 0.00 eV ,http://www.mathub2d.net//materials/detail/5f476358d5cc1b8bc6418ef1
Br2Ga2N2, 0.00 eV ,http://www.mathub2d.net//materials/detail/5f476358d5cc1b8bc6418e97
Pt1S2, 0.00 eV ,http://www.mathub2d.net//materials/detail/5f476358d5cc1b8bc6418dc8
Ta2Te2, 0.00 eV ,http://www.mathub2d.net//materials/detail/5f476358d5cc1b8bc6418e34
C1O2W2, 0.00 eV ,http://www.mathub2d.net//materials/detail/5f476357d5cc1b8bc6418b2f
Br2Tl1, 0.00 eV ,http://www.mathub2d.net//materials/detail/5f476357d5cc1b8bc6418abe
C2H2Mo3O2, 0.00 eV ,http://www.mathub2d.net//materials/detail/5f476357d5cc1b8bc6418b52
C2H2O2Y3, 0.00 eV ,http://www.mathub2d.net//materials/detail/5f476357d5cc1b8bc6418b5a
Au2Br2Se2, 0.00 eV ,http://www.mathub2d.net//materials/detail/5f476358d5cc1b8bc6418e68
Cl8Nb3, 0.00 eV ,http://www.mathub2d.net//materials/detail/5f476357d5cc1b8bc6418c04
Cl6Ni2, 0.00 eV ,http://www.mathub2d.net//materials/detail/5f476357d5cc1b8bc6418be3
Mo1O2, 0.00 eV ,http://www.mathub2d.net//materials/detail/5f476358d5cc1b8bc6418d38
Ge1Te2, 0.00 eV ,http://www.mathub2d.net//materials/detail/5f476357d5cc1b8bc6418c76
Br2Mo2O2, 0.00 eV ,http://www.mathub2d.net//materials/detail/5f476358d5cc1b8bc6418eb5
Cl2Fe1, 0.00 eV ,http://www.mathub2d.net//materials/detail/5f476357d5cc1b8bc6418b8c
I2Y1, 0.00 eV ,http://www.mathub2d.net//materials/detail/5f476358d5cc1b8bc6418ce0
Br2Ta1, 0.00 eV ,http://www.mathub2d.net//materials/detail/5f476357d5cc1b8bc6418aba
Cl2Mo2O2, 0.00 eV ,http://www.mathub2d.net//materials/detail/5f476358d5cc1b8bc6418f3c
Cr1Se2, 0.00 eV ,http://www.mathub2d.net//materials/detail/5f476357d5cc1b8bc6418c26
Br2Cu2S2, 0.00 eV ,http://www.mathub2d.net//materials/detail/5f476358d5cc1b8bc6418e90
Cl2Zr2, 0.00 eV ,http://www.mathub2d.net//materials/detail/5f476357d5cc1b8bc6418bca
Co2Te4, 0.00 eV ,http://www.mathub2d.net//materials/detail/5f476358d5cc1b8bc6418f9c
Ga1I2, 0.00 eV ,http://www.mathub2d.net//materials/detail/5f476357d5cc1b8bc6418c57
Cl2Ge2S2, 0.00 eV ,http://www.mathub2d.net//materials/detail/5f476358d5cc1b8bc6418f25
Co2S2, 0.00 eV ,http://www.mathub2d.net//materials/detail/5f476357d5cc1b8bc6418c1b
I2Pt1, 0.00 eV ,http://www.mathub2d.net//materials/detail/5f476357d5cc1b8bc6418cc4
Cl2Fe2O2, 0.00 eV ,http://www.mathub2d.net//materials/detail/5f476358d5cc1b8bc6418f1c
Au1I2, 0.00 eV ,http://www.mathub2d.net//materials/detail/5f476357d5cc1b8bc6418a3d
Hf2O2, 0.00 eV ,http://www.mathub2d.net//materials/detail/5f476357d5cc1b8bc6418c9d
Br6Rh2, 0.00 eV ,http://www.mathub2d.net//materials/detail/5f476357d5cc1b8bc6418aeb
I2Rh1, 0.00 eV ,http://www.mathub2d.net//materials/detail/5f476358d5cc1b8bc6418cc8
Au2I6, 0.00 eV ,http://www.mathub2d.net//materials/detail/5f476357d5cc1b8bc6418a4c
Co1Ga2Se4, 0.00 eV ,http://www.mathub2d.net//materials/detail/5f476357d5cc1b8bc6418c0a
C1Nb2, 0.00 eV ,http://www.mathub2d.net//materials/detail/5f476357d5cc1b8bc6418b28
Cl2Rh1, 0.00 eV ,http://www.mathub2d.net//materials/detail/5f476357d5cc1b8bc6418baf
C2H2Mn3O2, 0.00 eV ,http://www.mathub2d.net//materials/detail/5f476357d5cc1b8bc6418b51
Br2Hg2S2, 0.00 eV ,http://www.mathub2d.net//materials/detail/5f476358d5cc1b8bc6418ea5
Cl6Ir2, 0.00 eV ,http://www.mathub2d.net//materials/detail/5f476357d5cc1b8bc6418bdb
Cl2Ir2N2, 0.00 eV ,http://www.mathub2d.net//materials/detail/5f476358d5cc1b8bc6418f33
I2Rh1, 0.00 eV ,http://www.mathub2d.net//materials/detail/5f476358d5cc1b8bc6418cc9
Al2Fe1S4, 0.00 eV ,http://www.mathub2d.net//materials/detail/5f476357d5cc1b8bc6418a1a
Br2Ni2Se2, 0.00 eV ,http://www.mathub2d.net//materials/detail/5f476358d5cc1b8bc6418ecd
Br2Rh1, 0.00 eV ,http://www.mathub2d.net//materials/detail/5f476357d5cc1b8bc6418ab0
C2H2O2Sc3, 0.00 eV ,http://www.mathub2d.net//materials/detail/5f476357d5cc1b8bc6418b55
Cl6Hf2, 0.00 eV ,http://www.mathub2d.net//materials/detail/5f476357d5cc1b8bc6418bd7
I2Tm1, 0.00 eV ,http://www.mathub2d.net//materials/detail/5f476358d5cc1b8bc6418cda
Mn2Te2, 0.00 eV ,http://www.mathub2d.net//materials/detail/5f476358d5cc1b8bc6418d36
Fe2I2S2, 0.00 eV ,http://www.mathub2d.net//materials/detail/5f476358d5cc1b8bc6418fb3
Ta1Te2, 0.00 eV ,http://www.mathub2d.net//materials/detail/5f476358d5cc1b8bc6418e33
I2Pt1, 0.00 eV ,http://www.mathub2d.net//materials/detail/5f476357d5cc1b8bc6418cc5
Hg1Te1, 0.00 eV ,http://www.mathub2d.net//materials/detail/5f476357d5cc1b8bc6418cad
Cl4Sc2, 0.00 eV ,http://www.mathub2d.net//materials/detail/5f476358d5cc1b8bc6418f8b
Cl2Ta1, 0.00 eV ,http://www.mathub2d.net//materials/detail/5f476357d5cc1b8bc6418bba
Br2O2V2, 0.00 eV ,http://www.mathub2d.net//materials/detail/5f476358d5cc1b8bc6418ed9
Cl2Fe2N2, 0.00 eV ,http://www.mathub2d.net//materials/detail/5f476358d5cc1b8bc6418f1b
Cl2Hg2S2, 0.00 eV ,http://www.mathub2d.net//materials/detail/5f476358d5cc1b8bc6418f2d
Mo2S2, 0.00 eV ,http://www.mathub2d.net//materials/detail/5f476358d5cc1b8bc6418d44
Br2Cu2Se2, 0.00 eV ,http://www.mathub2d.net//materials/detail/5f476358d5cc1b8bc6418e91
S2W1, 0.00 eV ,http://www.mathub2d.net//materials/detail/5f476358d5cc1b8bc6418e02
C2V3, 0.00 eV ,http://www.mathub2d.net//materials/detail/5f476357d5cc1b8bc6418b70
C2H2O2Zr3, 0.00 eV ,http://www.mathub2d.net//materials/detail/5f476357d5cc1b8bc6418b5c
C1Ho2, 0.00 eV ,http://www.mathub2d.net//materials/detail/5f476357d5cc1b8bc6418b23
Mo1Te2, 0.00 eV ,http://www.mathub2d.net//materials/detail/5f476358d5cc1b8bc6418d40