Formula,pbe_band_gap,url
O2Tl2, 0.00 eV ,http://www.mathub2d.net//materials/detail/5f476358d5cc1b8bc6418d95
Cl2Nb2O2, 0.00 eV ,http://www.mathub2d.net//materials/detail/5f476358d5cc1b8bc6418f4f
Cl2Nb1, 0.00 eV ,http://www.mathub2d.net//materials/detail/5f476357d5cc1b8bc6418ba2
C2F2Mo3, 0.00 eV ,http://www.mathub2d.net//materials/detail/5f476357d5cc1b8bc6418b43
Ag2Br6, 0.00 eV ,http://www.mathub2d.net//materials/detail/5f476357d5cc1b8bc6418a06
Se2W1, 0.00 eV ,http://www.mathub2d.net//materials/detail/5f476358d5cc1b8bc6418e25
Cl2N2Sc2, 0.00 eV ,http://www.mathub2d.net//materials/detail/5f476358d5cc1b8bc6418f47
Cl2Cu1, 0.00 eV ,http://www.mathub2d.net//materials/detail/5f476357d5cc1b8bc6418b89
Br2O2Ta2, 0.00 eV ,http://www.mathub2d.net//materials/detail/5f476358d5cc1b8bc6418ed6
As2Pb6, 0.00 eV ,http://www.mathub2d.net//materials/detail/5f476357d5cc1b8bc6418a32
Ag2I2Se2, 0.00 eV ,http://www.mathub2d.net//materials/detail/5f476358d5cc1b8bc6418e4e
Rh2Te2, 0.00 eV ,http://www.mathub2d.net//materials/detail/5f476358d5cc1b8bc6418de2
Nb1Se2, 0.00 eV ,http://www.mathub2d.net//materials/detail/5f476358d5cc1b8bc6418d5c
Hf2I6, 0.00 eV ,http://www.mathub2d.net//materials/detail/5f476357d5cc1b8bc6418c9b
Cl2Hf2S2, 0.00 eV ,http://www.mathub2d.net//materials/detail/5f476358d5cc1b8bc6418f29
Br2In1, 0.00 eV ,http://www.mathub2d.net//materials/detail/5f476357d5cc1b8bc6418a96
Au1Se2, 0.00 eV ,http://www.mathub2d.net//materials/detail/5f476357d5cc1b8bc6418a44
Pd1S2, 0.00 eV ,http://www.mathub2d.net//materials/detail/5f476358d5cc1b8bc6418dbe
Mo2Te2, 0.00 eV ,http://www.mathub2d.net//materials/detail/5f476358d5cc1b8bc6418d47
S2Sc1, 0.00 eV ,http://www.mathub2d.net//materials/detail/5f476358d5cc1b8bc6418df3
S1Se1Ta1, 0.00 eV ,http://www.mathub2d.net//materials/detail/5f476358d5cc1b8bc6418dec
Ru2Se2, 0.00 eV ,http://www.mathub2d.net//materials/detail/5f476358d5cc1b8bc6418dea
Al2Cl2N2, 0.00 eV ,http://www.mathub2d.net//materials/detail/5f476358d5cc1b8bc6418e54
Ir1S2, 0.00 eV ,http://www.mathub2d.net//materials/detail/5f476358d5cc1b8bc6418d21
Hf2S2, 0.00 eV ,http://www.mathub2d.net//materials/detail/5f476357d5cc1b8bc6418c9f
Br2Fe1, 0.00 eV ,http://www.mathub2d.net//materials/detail/5f476357d5cc1b8bc6418a89
Br2O2Pb2, 0.00 eV ,http://www.mathub2d.net//materials/detail/5f476358d5cc1b8bc6418ecf
Ag2Br6, 0.00 eV ,http://www.mathub2d.net//materials/detail/5f476357d5cc1b8bc6418a07
Re1S2, 0.00 eV ,http://www.mathub2d.net//materials/detail/5f476358d5cc1b8bc6418dd2
Al1I2, 0.00 eV ,http://www.mathub2d.net//materials/detail/5f476357d5cc1b8bc6418a12
Au2Se2, 0.00 eV ,http://www.mathub2d.net//materials/detail/5f476357d5cc1b8bc6418a4f
C2Nb3O2, 0.00 eV ,http://www.mathub2d.net//materials/detail/5f476357d5cc1b8bc6418b64
Br2Ti1, 0.00 eV ,http://www.mathub2d.net//materials/detail/5f476357d5cc1b8bc6418abc
Fe2I6, 0.00 eV ,http://www.mathub2d.net//materials/detail/5f476357d5cc1b8bc6418c4e
Br2Se2Ta2, 0.00 eV ,http://www.mathub2d.net//materials/detail/5f476358d5cc1b8bc6418ef2
Cl2S2W2, 0.00 eV ,http://www.mathub2d.net//materials/detail/5f476358d5cc1b8bc6418f77
Ag2Cl6, 0.00 eV ,http://www.mathub2d.net//materials/detail/5f476357d5cc1b8bc6418a09
Br6Zr2, 0.00 eV ,http://www.mathub2d.net//materials/detail/5f476357d5cc1b8bc6418afe
Mn2S2, 0.00 eV ,http://www.mathub2d.net//materials/detail/5f476358d5cc1b8bc6418d34
Cl2S2Sn2, 0.00 eV ,http://www.mathub2d.net//materials/detail/5f476358d5cc1b8bc6418f72
Cu1Se2, 0.00 eV ,http://www.mathub2d.net//materials/detail/5f476357d5cc1b8bc6418c37
O2W2, 0.00 eV ,http://www.mathub2d.net//materials/detail/5f476358d5cc1b8bc6418d9c
I2Re1, 0.00 eV ,http://www.mathub2d.net//materials/detail/5f476358d5cc1b8bc6418cc7
Br2In1, 0.00 eV ,http://www.mathub2d.net//materials/detail/5f476357d5cc1b8bc6418a95
I2Zr1, 0.00 eV ,http://www.mathub2d.net//materials/detail/5f476358d5cc1b8bc6418ce3
I6Ta2, 0.00 eV ,http://www.mathub2d.net//materials/detail/5f476358d5cc1b8bc6418d03
Cl6Pd2, 0.00 eV ,http://www.mathub2d.net//materials/detail/5f476357d5cc1b8bc6418be7
N1W2, 0.00 eV ,http://www.mathub2d.net//materials/detail/5f476358d5cc1b8bc6418d48
Ni1O2, 0.00 eV ,http://www.mathub2d.net//materials/detail/5f476358d5cc1b8bc6418d64
C1Ti2, 0.00 eV ,http://www.mathub2d.net//materials/detail/5f476357d5cc1b8bc6418b36
Cl2V1, 0.00 eV ,http://www.mathub2d.net//materials/detail/5f476357d5cc1b8bc6418bc1
C1O2V2, 0.00 eV ,http://www.mathub2d.net//materials/detail/5f476357d5cc1b8bc6418b2e
C2H2O2V3, 0.00 eV ,http://www.mathub2d.net//materials/detail/5f476357d5cc1b8bc6418b58
Nb1Te2, 0.00 eV ,http://www.mathub2d.net//materials/detail/5f476358d5cc1b8bc6418d5d
C2Nb3, 0.00 eV ,http://www.mathub2d.net//materials/detail/5f476357d5cc1b8bc6418b63
Al1I2, 0.00 eV ,http://www.mathub2d.net//materials/detail/5f476357d5cc1b8bc6418a11
Ir1Te2, 0.00 eV ,http://www.mathub2d.net//materials/detail/5f476358d5cc1b8bc6418d24
Cl2Pt1, 0.00 eV ,http://www.mathub2d.net//materials/detail/5f476357d5cc1b8bc6418baa
Ag2Br2N2, 0.00 eV ,http://www.mathub2d.net//materials/detail/5f476358d5cc1b8bc6418e43
Ag2Cl2S2, 0.00 eV ,http://www.mathub2d.net//materials/detail/5f476358d5cc1b8bc6418e49
Cl2Y1, 0.00 eV ,http://www.mathub2d.net//materials/detail/5f476357d5cc1b8bc6418bc5
Cl6Zr2, 0.00 eV ,http://www.mathub2d.net//materials/detail/5f476357d5cc1b8bc6418c01
Cl2Mn2Se2, 0.00 eV ,http://www.mathub2d.net//materials/detail/5f476358d5cc1b8bc6418f3a
Ir2Te2, 0.00 eV ,http://www.mathub2d.net//materials/detail/5f476358d5cc1b8bc6418d29
C1V2, 0.00 eV ,http://www.mathub2d.net//materials/detail/5f476357d5cc1b8bc6418b37
Cl2Mn2O2, 0.00 eV ,http://www.mathub2d.net//materials/detail/5f476358d5cc1b8bc6418f38
Nb1Te2, 0.00 eV ,http://www.mathub2d.net//materials/detail/5f476358d5cc1b8bc6418d5e
O2Os1, 0.00 eV ,http://www.mathub2d.net//materials/detail/5f476358d5cc1b8bc6418d76
Br2Re1, 0.00 eV ,http://www.mathub2d.net//materials/detail/5f476357d5cc1b8bc6418aae
Cl6Hf2, 0.00 eV ,http://www.mathub2d.net//materials/detail/5f476357d5cc1b8bc6418bd8
Nb2O2, 0.00 eV ,http://www.mathub2d.net//materials/detail/5f476358d5cc1b8bc6418d5f
I6Pd2, 0.00 eV ,http://www.mathub2d.net//materials/detail/5f476358d5cc1b8bc6418cf5
Br2Ir1, 0.00 eV ,http://www.mathub2d.net//materials/detail/5f476357d5cc1b8bc6418a97
I6Mo2, 0.00 eV ,http://www.mathub2d.net//materials/detail/5f476358d5cc1b8bc6418cec
Ta1Te2, 0.00 eV ,http://www.mathub2d.net//materials/detail/5f476358d5cc1b8bc6418e32
Br2Nb1, 0.00 eV ,http://www.mathub2d.net//materials/detail/5f476357d5cc1b8bc6418aa0
Cl2Pd2S2, 0.00 eV ,http://www.mathub2d.net//materials/detail/5f476358d5cc1b8bc6418f68
Br6Hf2, 0.00 eV ,http://www.mathub2d.net//materials/detail/5f476357d5cc1b8bc6418ad6
Co1Te2, 0.00 eV ,http://www.mathub2d.net//materials/detail/5f476357d5cc1b8bc6418c17
Fe1Se2, 0.00 eV ,http://www.mathub2d.net//materials/detail/5f476357d5cc1b8bc6418c4b
O2W1, 0.00 eV ,http://www.mathub2d.net//materials/detail/5f476358d5cc1b8bc6418d99
Cl6Ta2, 0.00 eV ,http://www.mathub2d.net//materials/detail/5f476357d5cc1b8bc6418bf5
Cl2Ir1, 0.00 eV ,http://www.mathub2d.net//materials/detail/5f476357d5cc1b8bc6418b99
Cl2Pt2S2, 0.00 eV ,http://www.mathub2d.net//materials/detail/5f476358d5cc1b8bc6418f6a
Cl6Rh2, 0.00 eV ,http://www.mathub2d.net//materials/detail/5f476357d5cc1b8bc6418bed
O2Os1, 0.00 eV ,http://www.mathub2d.net//materials/detail/5f476358d5cc1b8bc6418d75
Ru1Te2, 0.00 eV ,http://www.mathub2d.net//materials/detail/5f476358d5cc1b8bc6418de8
Au2Br6, 0.00 eV ,http://www.mathub2d.net//materials/detail/5f476357d5cc1b8bc6418a48
Mn1Te2, 0.00 eV ,http://www.mathub2d.net//materials/detail/5f476358d5cc1b8bc6418d32
Fe2I2Se2, 0.00 eV ,http://www.mathub2d.net//materials/detail/5f476358d5cc1b8bc6418fb4
I2Ni1, 0.00 eV ,http://www.mathub2d.net//materials/detail/5f476357d5cc1b8bc6418cbc
Cl2Co2O2, 0.00 eV ,http://www.mathub2d.net//materials/detail/5f476358d5cc1b8bc6418f0d
Cl2N2Os2, 0.00 eV ,http://www.mathub2d.net//materials/detail/5f476358d5cc1b8bc6418f41
Fe1S2, 0.00 eV ,http://www.mathub2d.net//materials/detail/5f476357d5cc1b8bc6418c4a
Br6Pt2, 0.00 eV ,http://www.mathub2d.net//materials/detail/5f476357d5cc1b8bc6418ae7
Br2N2W2, 0.00 eV ,http://www.mathub2d.net//materials/detail/5f476358d5cc1b8bc6418ec6
Br2Cu1, 0.00 eV ,http://www.mathub2d.net//materials/detail/5f476357d5cc1b8bc6418a86
C2H2Hf3O2, 0.00 eV ,http://www.mathub2d.net//materials/detail/5f476357d5cc1b8bc6418b50
Cr1I2, 0.00 eV ,http://www.mathub2d.net//materials/detail/5f476357d5cc1b8bc6418c20
Cl2O2Ta2, 0.00 eV ,http://www.mathub2d.net//materials/detail/5f476358d5cc1b8bc6418f5e
P2Sn6, 0.00 eV ,http://www.mathub2d.net//materials/detail/5f476358d5cc1b8bc6418db2
Cl2Cu2O2, 0.00 eV ,http://www.mathub2d.net//materials/detail/5f476358d5cc1b8bc6418f15
Cl2Ga1, 0.00 eV ,http://www.mathub2d.net//materials/detail/5f476357d5cc1b8bc6418b8d
Co1Ga2S4, 0.00 eV ,http://www.mathub2d.net//materials/detail/5f476357d5cc1b8bc6418c08
Mo1S2, 0.00 eV ,http://www.mathub2d.net//materials/detail/5f476358d5cc1b8bc6418d3d
Br6Fe2, 0.00 eV ,http://www.mathub2d.net//materials/detail/5f476357d5cc1b8bc6418ad2
O2Ti2, 0.00 eV ,http://www.mathub2d.net//materials/detail/5f476358d5cc1b8bc6418d94
Au2I2N2, 0.00 eV ,http://www.mathub2d.net//materials/detail/5f476358d5cc1b8bc6418e6e
Br2Co2O2, 0.00 eV ,http://www.mathub2d.net//materials/detail/5f476358d5cc1b8bc6418e87
Br2Pt1, 0.00 eV ,http://www.mathub2d.net//materials/detail/5f476357d5cc1b8bc6418aab
C2Mo3, 0.00 eV ,http://www.mathub2d.net//materials/detail/5f476357d5cc1b8bc6418b61
Br2Co2N2, 0.00 eV ,http://www.mathub2d.net//materials/detail/5f476358d5cc1b8bc6418e86
Br2Hf1, 0.00 eV ,http://www.mathub2d.net//materials/detail/5f476357d5cc1b8bc6418a8f
C2Sc3, 0.00 eV ,http://www.mathub2d.net//materials/detail/5f476357d5cc1b8bc6418b6d
Br2N2Pd2, 0.00 eV ,http://www.mathub2d.net//materials/detail/5f476358d5cc1b8bc6418ebc
Br2Tb2, 0.00 eV ,http://www.mathub2d.net//materials/detail/5f476357d5cc1b8bc6418abb
Br2Pb2Se2, 0.00 eV ,http://www.mathub2d.net//materials/detail/5f476358d5cc1b8bc6418edf
Cl6Cu2, 0.00 eV ,http://www.mathub2d.net//materials/detail/5f476357d5cc1b8bc6418bcf
S2Ta2, 0.00 eV ,http://www.mathub2d.net//materials/detail/5f476358d5cc1b8bc6418dfa
Cl6Pd2, 0.00 eV ,http://www.mathub2d.net//materials/detail/5f476357d5cc1b8bc6418be8
Cl6Cu2, 0.00 eV ,http://www.mathub2d.net//materials/detail/5f476357d5cc1b8bc6418bd0
Ge1Se2, 0.00 eV ,http://www.mathub2d.net//materials/detail/5f476357d5cc1b8bc6418c71
I6Mn2, 0.00 eV ,http://www.mathub2d.net//materials/detail/5f476358d5cc1b8bc6418cea
Ag2I2S2, 0.00 eV ,http://www.mathub2d.net//materials/detail/5f476358d5cc1b8bc6418e4d
Pd2S2, 0.00 eV ,http://www.mathub2d.net//materials/detail/5f476358d5cc1b8bc6418dc3
Rh1S2, 0.00 eV ,http://www.mathub2d.net//materials/detail/5f476358d5cc1b8bc6418ddb
I6W2, 0.00 eV ,http://www.mathub2d.net//materials/detail/5f476358d5cc1b8bc6418d0a
Au2I2Se2, 0.00 eV ,http://www.mathub2d.net//materials/detail/5f476358d5cc1b8bc6418e71
I6Ru2, 0.00 eV ,http://www.mathub2d.net//materials/detail/5f476358d5cc1b8bc6418cfd
Pd2Se2, 0.00 eV ,http://www.mathub2d.net//materials/detail/5f476358d5cc1b8bc6418dc4
Cu2O2, 0.00 eV ,http://www.mathub2d.net//materials/detail/5f476357d5cc1b8bc6418c3c
Bi2Cl2N2, 0.00 eV ,http://www.mathub2d.net//materials/detail/5f476358d5cc1b8bc6418e7b
Br2Nb2S2, 0.00 eV ,http://www.mathub2d.net//materials/detail/5f476358d5cc1b8bc6418ec9
C1F2Ta2, 0.00 eV ,http://www.mathub2d.net//materials/detail/5f476357d5cc1b8bc6418b0f
C1Zr2, 0.00 eV ,http://www.mathub2d.net//materials/detail/5f476357d5cc1b8bc6418b3a
Br2Fe2N2, 0.00 eV ,http://www.mathub2d.net//materials/detail/5f476358d5cc1b8bc6418e93
Cu2I2S2, 0.00 eV ,http://www.mathub2d.net//materials/detail/5f476358d5cc1b8bc6418fab
Br2N2Pb2, 0.00 eV ,http://www.mathub2d.net//materials/detail/5f476358d5cc1b8bc6418ebb
Co2S4, 0.00 eV ,http://www.mathub2d.net//materials/detail/5f476358d5cc1b8bc6418f99
Sc1Se2, 0.00 eV ,http://www.mathub2d.net//materials/detail/5f476358d5cc1b8bc6418e11
Br2Cr2N2, 0.00 eV ,http://www.mathub2d.net//materials/detail/5f476358d5cc1b8bc6418e8a
Hg1Te2, 0.00 eV ,http://www.mathub2d.net//materials/detail/5f476357d5cc1b8bc6418caf
Cl2Cr1, 0.00 eV ,http://www.mathub2d.net//materials/detail/5f476357d5cc1b8bc6418b88
Br2Cu2O2, 0.00 eV ,http://www.mathub2d.net//materials/detail/5f476358d5cc1b8bc6418e8f
Br2W1, 0.00 eV ,http://www.mathub2d.net//materials/detail/5f476357d5cc1b8bc6418ac3
Te2V1, 0.00 eV ,http://www.mathub2d.net//materials/detail/5f476358d5cc1b8bc6418e3a
Cl2Ni1, 0.00 eV ,http://www.mathub2d.net//materials/detail/5f476357d5cc1b8bc6418ba4
Br2S2W2, 0.00 eV ,http://www.mathub2d.net//materials/detail/5f476358d5cc1b8bc6418eee
Cu2I6, 0.00 eV ,http://www.mathub2d.net//materials/detail/5f476357d5cc1b8bc6418c3b
As2Si6, 0.00 eV ,http://www.mathub2d.net//materials/detail/5f476357d5cc1b8bc6418a34
C1Mn2O2, 0.00 eV ,http://www.mathub2d.net//materials/detail/5f476357d5cc1b8bc6418b25
Ga1I2, 0.00 eV ,http://www.mathub2d.net//materials/detail/5f476357d5cc1b8bc6418c56
Cl2Cu2N2, 0.00 eV ,http://www.mathub2d.net//materials/detail/5f476358d5cc1b8bc6418f14
Cu1Te2, 0.00 eV ,http://www.mathub2d.net//materials/detail/5f476357d5cc1b8bc6418c38
Ag2Cl2O2, 0.00 eV ,http://www.mathub2d.net//materials/detail/5f476358d5cc1b8bc6418e48
Cl2Ni2Se2, 0.00 eV ,http://www.mathub2d.net//materials/detail/5f476358d5cc1b8bc6418f54
Cu2Se2, 0.00 eV ,http://www.mathub2d.net//materials/detail/5f476357d5cc1b8bc6418c3e
C1Mo2O2, 0.00 eV ,http://www.mathub2d.net//materials/detail/5f476357d5cc1b8bc6418b27
Cl2Cu1, 0.00 eV ,http://www.mathub2d.net//materials/detail/5f476357d5cc1b8bc6418b8a
O2Ru2, 0.00 eV ,http://www.mathub2d.net//materials/detail/5f476358d5cc1b8bc6418d88
Cu1O2, 0.00 eV ,http://www.mathub2d.net//materials/detail/5f476357d5cc1b8bc6418c33
F2Sn2, 0.00 eV ,http://www.mathub2d.net//materials/detail/5f476357d5cc1b8bc6418c43
As2C6, 0.00 eV ,http://www.mathub2d.net//materials/detail/5f476357d5cc1b8bc6418a2a
Br2O2Pt2, 0.00 eV ,http://www.mathub2d.net//materials/detail/5f476358d5cc1b8bc6418ed1
Cl6Ru2, 0.00 eV ,http://www.mathub2d.net//materials/detail/5f476357d5cc1b8bc6418bf0
I2Th1, 0.00 eV ,http://www.mathub2d.net//materials/detail/5f476358d5cc1b8bc6418cd5
Br6Ru2, 0.00 eV ,http://www.mathub2d.net//materials/detail/5f476357d5cc1b8bc6418aee
Br2N2Ta2, 0.00 eV ,http://www.mathub2d.net//materials/detail/5f476358d5cc1b8bc6418ec2
Te2Ti1, 0.00 eV ,http://www.mathub2d.net//materials/detail/5f476358d5cc1b8bc6418e36
Cl2Sc1, 0.00 eV ,http://www.mathub2d.net//materials/detail/5f476357d5cc1b8bc6418bb2
Ag2Cl2Se2, 0.00 eV ,http://www.mathub2d.net//materials/detail/5f476358d5cc1b8bc6418e4a
Ge6P2, 0.00 eV ,http://www.mathub2d.net//materials/detail/5f476357d5cc1b8bc6418c82
C2F2Zr3, 0.00 eV ,http://www.mathub2d.net//materials/detail/5f476357d5cc1b8bc6418b4c
Br2Mo2Se2, 0.00 eV ,http://www.mathub2d.net//materials/detail/5f476358d5cc1b8bc6418eb7
Co1Ga2Se4, 0.00 eV ,http://www.mathub2d.net//materials/detail/5f476357d5cc1b8bc6418c09
I2Ta1, 0.00 eV ,http://www.mathub2d.net//materials/detail/5f476358d5cc1b8bc6418cd4
Br6W2, 0.00 eV ,http://www.mathub2d.net//materials/detail/5f476357d5cc1b8bc6418afa
Br2Hf2O2, 0.00 eV ,http://www.mathub2d.net//materials/detail/5f476358d5cc1b8bc6418ea0
Os1Te2, 0.00 eV ,http://www.mathub2d.net//materials/detail/5f476358d5cc1b8bc6418da7
Co1I2, 0.00 eV ,http://www.mathub2d.net//materials/detail/5f476357d5cc1b8bc6418c0d
O2Zr2, 0.00 eV ,http://www.mathub2d.net//materials/detail/5f476358d5cc1b8bc6418d9f
Cl2Tb2, 0.00 eV ,http://www.mathub2d.net//materials/detail/5f476357d5cc1b8bc6418bbb
Br6Zr2, 0.00 eV ,http://www.mathub2d.net//materials/detail/5f476357d5cc1b8bc6418aff
C2H2O2Ti3, 0.00 eV ,http://www.mathub2d.net//materials/detail/5f476357d5cc1b8bc6418b57
I2Nb1, 0.00 eV ,http://www.mathub2d.net//materials/detail/5f476357d5cc1b8bc6418cbb
As2Ge6, 0.00 eV ,http://www.mathub2d.net//materials/detail/5f476357d5cc1b8bc6418a2e
Br2Pt2S2, 0.00 eV ,http://www.mathub2d.net//materials/detail/5f476358d5cc1b8bc6418ee1
Pd2Te2, 0.00 eV ,http://www.mathub2d.net//materials/detail/5f476358d5cc1b8bc6418dc5
S2Ta1, 0.00 eV ,http://www.mathub2d.net//materials/detail/5f476358d5cc1b8bc6418df8
Cl4W2, 0.00 eV ,http://www.mathub2d.net//materials/detail/5f476358d5cc1b8bc6418f90
Au2Cl6, 0.00 eV ,http://www.mathub2d.net//materials/detail/5f476357d5cc1b8bc6418a4a
Br2Ir2N2, 0.00 eV ,http://www.mathub2d.net//materials/detail/5f476358d5cc1b8bc6418eab
Fe2I2O2, 0.00 eV ,http://www.mathub2d.net//materials/detail/5f476358d5cc1b8bc6418fb2
Bi2Ge6, 0.00 eV ,http://www.mathub2d.net//materials/detail/5f476357d5cc1b8bc6418a6a
Br4Nb2O2, 0.00 eV ,http://www.mathub2d.net//materials/detail/5f476358d5cc1b8bc6418efc
Hf2I6, 0.00 eV ,http://www.mathub2d.net//materials/detail/5f476357d5cc1b8bc6418c9c
Cl2O2Zr2, 0.00 eV ,http://www.mathub2d.net//materials/detail/5f476358d5cc1b8bc6418f63
Cu1Te2, 0.00 eV ,http://www.mathub2d.net//materials/detail/5f476357d5cc1b8bc6418c39
I6Os2, 0.00 eV ,http://www.mathub2d.net//materials/detail/5f476358d5cc1b8bc6418cf3
Cl2W1, 0.00 eV ,http://www.mathub2d.net//materials/detail/5f476357d5cc1b8bc6418bc3
Ba2N1, 0.00 eV ,http://www.mathub2d.net//materials/detail/5f476357d5cc1b8bc6418a5d
Cr1S2, 0.00 eV ,http://www.mathub2d.net//materials/detail/5f476357d5cc1b8bc6418c24
O2Os2, 0.00 eV ,http://www.mathub2d.net//materials/detail/5f476358d5cc1b8bc6418d77
Hg1Se1, 0.00 eV ,http://www.mathub2d.net//materials/detail/5f476357d5cc1b8bc6418caa
Br2Se2Tl2, 0.00 eV ,http://www.mathub2d.net//materials/detail/5f476358d5cc1b8bc6418ef4
Pb1Te2, 0.00 eV ,http://www.mathub2d.net//materials/detail/5f476358d5cc1b8bc6418dba
S2Sc1, 0.00 eV ,http://www.mathub2d.net//materials/detail/5f476358d5cc1b8bc6418df2
C2, 0.00 eV ,http://www.mathub2d.net//materials/detail/5f476357d5cc1b8bc6418b3b
Au1I2, 0.00 eV ,http://www.mathub2d.net//materials/detail/5f476357d5cc1b8bc6418a3c
O2Pb1, 0.00 eV ,http://www.mathub2d.net//materials/detail/5f476358d5cc1b8bc6418d79
Cl2Os2S2, 0.00 eV ,http://www.mathub2d.net//materials/detail/5f476358d5cc1b8bc6418f64
Co1O2, 0.00 eV ,http://www.mathub2d.net//materials/detail/5f476357d5cc1b8bc6418c11
Cl4Y2, 0.00 eV ,http://www.mathub2d.net//materials/detail/5f476358d5cc1b8bc6418f91
Co2Se2, 0.00 eV ,http://www.mathub2d.net//materials/detail/5f476357d5cc1b8bc6418c1c
Cr1I2, 0.00 eV ,http://www.mathub2d.net//materials/detail/5f476357d5cc1b8bc6418c21
Re1S2, 0.00 eV ,http://www.mathub2d.net//materials/detail/5f476358d5cc1b8bc6418dd3
Te2W2, 0.00 eV ,http://www.mathub2d.net//materials/detail/5f476358d5cc1b8bc6418e3e
Cl2Co1, 0.00 eV ,http://www.mathub2d.net//materials/detail/5f476357d5cc1b8bc6418b85
Ga2Mn1S4, 0.00 eV ,http://www.mathub2d.net//materials/detail/5f476357d5cc1b8bc6418c5e
O2Rh1, 0.00 eV ,http://www.mathub2d.net//materials/detail/5f476358d5cc1b8bc6418d83
Ag2Cl2N2, 0.00 eV ,http://www.mathub2d.net//materials/detail/5f476358d5cc1b8bc6418e47
Br2Mo2S2, 0.00 eV ,http://www.mathub2d.net//materials/detail/5f476358d5cc1b8bc6418eb6
Fe2S2, 0.00 eV ,http://www.mathub2d.net//materials/detail/5f476357d5cc1b8bc6418c52
Bi2Br2N2, 0.00 eV ,http://www.mathub2d.net//materials/detail/5f476358d5cc1b8bc6418e76
Os2Te2, 0.00 eV ,http://www.mathub2d.net//materials/detail/5f476358d5cc1b8bc6418daa
Br2Fe2S2, 0.00 eV ,http://www.mathub2d.net//materials/detail/5f476358d5cc1b8bc6418e95
Ag2Br2O2, 0.00 eV ,http://www.mathub2d.net//materials/detail/5f476358d5cc1b8bc6418e44
C2Cr3O2, 0.00 eV ,http://www.mathub2d.net//materials/detail/5f476357d5cc1b8bc6418b3f
Fe2O2, 0.00 eV ,http://www.mathub2d.net//materials/detail/5f476357d5cc1b8bc6418c50
Cl2N2Ta2, 0.00 eV ,http://www.mathub2d.net//materials/detail/5f476358d5cc1b8bc6418f49
Fe1I2, 0.00 eV ,http://www.mathub2d.net//materials/detail/5f476357d5cc1b8bc6418c45
Ru1Te2, 0.00 eV ,http://www.mathub2d.net//materials/detail/5f476358d5cc1b8bc6418de7
Br2O2Ti2, 0.00 eV ,http://www.mathub2d.net//materials/detail/5f476358d5cc1b8bc6418ed7
Cr2Se4, 0.00 eV ,http://www.mathub2d.net//materials/detail/5f476358d5cc1b8bc6418fa6
I6Pt2, 0.00 eV ,http://www.mathub2d.net//materials/detail/5f476358d5cc1b8bc6418cf6
Cu2I2Se2, 0.00 eV ,http://www.mathub2d.net//materials/detail/5f476358d5cc1b8bc6418fac
Au1S2, 0.00 eV ,http://www.mathub2d.net//materials/detail/5f476357d5cc1b8bc6418a41