Formula,pbe_band_gap,url
C2F6O6S2Zn1, 6.07 eV ,http://www.mathub2d.net//materials/detail/5f476357d5cc1b8bc6418b4d
Cl2Mg1, 5.99 eV ,http://www.mathub2d.net//materials/detail/5f476357d5cc1b8bc6418b9a
Ca1Cl2, 5.80 eV ,http://www.mathub2d.net//materials/detail/5f476357d5cc1b8bc6418b78
Al2Cl2O2, 5.79 eV ,http://www.mathub2d.net//materials/detail/5f476358d5cc1b8bc6418e55
Cl2Sr1, 5.76 eV ,http://www.mathub2d.net//materials/detail/5f476357d5cc1b8bc6418bb7
Ba1Cl2, 5.61 eV ,http://www.mathub2d.net//materials/detail/5f476357d5cc1b8bc6418a59
Al2Cl6, 5.53 eV ,http://www.mathub2d.net//materials/detail/5f476357d5cc1b8bc6418a19
Cl2Er2O2, 5.32 eV ,http://www.mathub2d.net//materials/detail/5f476358d5cc1b8bc6418f18
Cl6Y2, 5.13 eV ,http://www.mathub2d.net//materials/detail/5f476357d5cc1b8bc6418bff
Ba2Br2Cl2, 5.09 eV ,http://www.mathub2d.net//materials/detail/5f476358d5cc1b8bc6418e75
Cl2Zn1, 5.05 eV ,http://www.mathub2d.net//materials/detail/5f476357d5cc1b8bc6418bc6
Br2Ca1, 5.02 eV ,http://www.mathub2d.net//materials/detail/5f476357d5cc1b8bc6418a7e
Br2Sr1, 5.00 eV ,http://www.mathub2d.net//materials/detail/5f476357d5cc1b8bc6418ab7
Cl2Sr1, 4.96 eV ,http://www.mathub2d.net//materials/detail/5f476357d5cc1b8bc6418bb8
Ba1Br2, 4.96 eV ,http://www.mathub2d.net//materials/detail/5f476357d5cc1b8bc6418a57
Hf1O2, 4.90 eV ,http://www.mathub2d.net//materials/detail/5f476357d5cc1b8bc6418c91
Cl2Mg1, 4.80 eV ,http://www.mathub2d.net//materials/detail/5f476357d5cc1b8bc6418b9b
Cl2O2Sc2, 4.79 eV ,http://www.mathub2d.net//materials/detail/5f476358d5cc1b8bc6418f5c
Ca1Cl2, 4.78 eV ,http://www.mathub2d.net//materials/detail/5f476357d5cc1b8bc6418b79
Br2Mg1, 4.77 eV ,http://www.mathub2d.net//materials/detail/5f476357d5cc1b8bc6418a99
B1Cl3, 4.75 eV ,http://www.mathub2d.net//materials/detail/5f476357d5cc1b8bc6418a52
Ba1Cl2, 4.74 eV ,http://www.mathub2d.net//materials/detail/5f476357d5cc1b8bc6418a5a
B1N1, 4.65 eV ,http://www.mathub2d.net//materials/detail/5f476357d5cc1b8bc6418a54
Cl6Y2, 4.42 eV ,http://www.mathub2d.net//materials/detail/5f476357d5cc1b8bc6418c00
O2Zr1, 4.40 eV ,http://www.mathub2d.net//materials/detail/5f476358d5cc1b8bc6418d9d
Br2Sr1, 4.38 eV ,http://www.mathub2d.net//materials/detail/5f476357d5cc1b8bc6418ab8
I2Sr1, 4.33 eV ,http://www.mathub2d.net//materials/detail/5f476358d5cc1b8bc6418cd1
Cl6Sc2, 4.31 eV ,http://www.mathub2d.net//materials/detail/5f476357d5cc1b8bc6418bf3
H2O6P2Zr1, 4.27 eV ,http://www.mathub2d.net//materials/detail/5f476357d5cc1b8bc6418c8b
Cl2Ga2O2, 4.26 eV ,http://www.mathub2d.net//materials/detail/5f476358d5cc1b8bc6418f20
Br6Y2, 4.21 eV ,http://www.mathub2d.net//materials/detail/5f476357d5cc1b8bc6418afc
Br2Ca1, 4.21 eV ,http://www.mathub2d.net//materials/detail/5f476357d5cc1b8bc6418a7f
Ba1Br2, 4.20 eV ,http://www.mathub2d.net//materials/detail/5f476357d5cc1b8bc6418a58
Ba1I2, 4.14 eV ,http://www.mathub2d.net//materials/detail/5f476357d5cc1b8bc6418a5b
Cl6Ga2, 4.13 eV ,http://www.mathub2d.net//materials/detail/5f476357d5cc1b8bc6418bd5
Al2Br2O2, 4.11 eV ,http://www.mathub2d.net//materials/detail/5f476358d5cc1b8bc6418e51
As2Cl6, 4.06 eV ,http://www.mathub2d.net//materials/detail/5f476357d5cc1b8bc6418a2d
Al2Br6, 4.05 eV ,http://www.mathub2d.net//materials/detail/5f476357d5cc1b8bc6418a16
Br2O2Y2, 4.04 eV ,http://www.mathub2d.net//materials/detail/5f476357d5cc1b8bc6418aa4
As2Cl6, 4.04 eV ,http://www.mathub2d.net//materials/detail/5f476358d5cc1b8bc6418e60
Cd1Cl2, 4.01 eV ,http://www.mathub2d.net//materials/detail/5f476357d5cc1b8bc6418b7d
Cl6Dy2, 3.95 eV ,http://www.mathub2d.net//materials/detail/5f476358d5cc1b8bc6418f93
Ca1I2, 3.92 eV ,http://www.mathub2d.net//materials/detail/5f476357d5cc1b8bc6418b7a
Cl6Sb2, 3.91 eV ,http://www.mathub2d.net//materials/detail/5f476357d5cc1b8bc6418bf2
As4O6, 3.89 eV ,http://www.mathub2d.net//materials/detail/5f476358d5cc1b8bc6418e62
Cl6In2, 3.86 eV ,http://www.mathub2d.net//materials/detail/5f476357d5cc1b8bc6418bda
Al2Cl6, 3.86 eV ,http://www.mathub2d.net//materials/detail/5f476357d5cc1b8bc6418a18
As2Cl6, 3.86 eV ,http://www.mathub2d.net//materials/detail/5f476357d5cc1b8bc6418a2c
Cl2Zn1, 3.84 eV ,http://www.mathub2d.net//materials/detail/5f476357d5cc1b8bc6418bc7
Br2O2Sc2, 3.82 eV ,http://www.mathub2d.net//materials/detail/5f476358d5cc1b8bc6418ed4
Cl6Sb2, 3.82 eV ,http://www.mathub2d.net//materials/detail/5f476357d5cc1b8bc6418bf1
B1Br3, 3.78 eV ,http://www.mathub2d.net//materials/detail/5f476357d5cc1b8bc6418a51
Br2Zn1, 3.77 eV ,http://www.mathub2d.net//materials/detail/5f476357d5cc1b8bc6418ac6
Br2Mg1, 3.75 eV ,http://www.mathub2d.net//materials/detail/5f476357d5cc1b8bc6418a9a
Br2Ho2O2, 3.73 eV ,http://www.mathub2d.net//materials/detail/5f476357d5cc1b8bc6418a94
C1H2Si1, 3.71 eV ,http://www.mathub2d.net//materials/detail/5f476357d5cc1b8bc6418b20
I2Sr1, 3.70 eV ,http://www.mathub2d.net//materials/detail/5f476358d5cc1b8bc6418cd2
Cl6Sc2, 3.68 eV ,http://www.mathub2d.net//materials/detail/5f476357d5cc1b8bc6418bf4
I2Mg1, 3.64 eV ,http://www.mathub2d.net//materials/detail/5f476357d5cc1b8bc6418cb4
Ge1O2, 3.58 eV ,http://www.mathub2d.net//materials/detail/5f476357d5cc1b8bc6418c6b
Br6Sc2, 3.54 eV ,http://www.mathub2d.net//materials/detail/5f476357d5cc1b8bc6418af1
Cl6Fe1Hf1, 3.54 eV ,http://www.mathub2d.net//materials/detail/5f476357d5cc1b8bc6418bd1
Ba1I2, 3.53 eV ,http://www.mathub2d.net//materials/detail/5f476357d5cc1b8bc6418a5c
Cl2Pb1, 3.51 eV ,http://www.mathub2d.net//materials/detail/5f476357d5cc1b8bc6418ba8
Br6Y2, 3.49 eV ,http://www.mathub2d.net//materials/detail/5f476357d5cc1b8bc6418afd
Cl4Hg2, 3.47 eV ,http://www.mathub2d.net//materials/detail/5f476358d5cc1b8bc6418f83
C2H2, 3.46 eV ,http://www.mathub2d.net//materials/detail/5f476357d5cc1b8bc6418b4f
Bi2F2O2, 3.45 eV ,http://www.mathub2d.net//materials/detail/5f476357d5cc1b8bc6418a68
As2O8Sb2, 3.42 eV ,http://www.mathub2d.net//materials/detail/5f476358d5cc1b8bc6418e61
Bi2Cl6, 3.37 eV ,http://www.mathub2d.net//materials/detail/5f476357d5cc1b8bc6418a67
Ca1I2, 3.31 eV ,http://www.mathub2d.net//materials/detail/5f476357d5cc1b8bc6418b7b
Br2Cd1, 3.31 eV ,http://www.mathub2d.net//materials/detail/5f476357d5cc1b8bc6418a80
As2Br6, 3.30 eV ,http://www.mathub2d.net//materials/detail/5f476358d5cc1b8bc6418e5f
H2Mg1O2, 3.30 eV ,http://www.mathub2d.net//materials/detail/5f476357d5cc1b8bc6418c84
O2Ti1, 3.27 eV ,http://www.mathub2d.net//materials/detail/5f476358d5cc1b8bc6418d91
As2Br6, 3.24 eV ,http://www.mathub2d.net//materials/detail/5f476357d5cc1b8bc6418a28
Bi2Cl6, 3.21 eV ,http://www.mathub2d.net//materials/detail/5f476357d5cc1b8bc6418a66
Br2Pb1, 3.21 eV ,http://www.mathub2d.net//materials/detail/5f476357d5cc1b8bc6418aa8
Cd1Cl2, 3.17 eV ,http://www.mathub2d.net//materials/detail/5f476357d5cc1b8bc6418b7e
C16Cl8Ge2H48N4, 3.15 eV ,http://www.mathub2d.net//materials/detail/5f476358d5cc1b8bc6418f07
I6Y2, 3.14 eV ,http://www.mathub2d.net//materials/detail/5f476358d5cc1b8bc6418d0b
C16Cl4Ge2H48I4N4, 3.11 eV ,http://www.mathub2d.net//materials/detail/5f476358d5cc1b8bc6418f06
O2Sn1, 3.10 eV ,http://www.mathub2d.net//materials/detail/5f476358d5cc1b8bc6418d8c
C2F2, 3.09 eV ,http://www.mathub2d.net//materials/detail/5f476357d5cc1b8bc6418b40
Cl2Pb1, 3.07 eV ,http://www.mathub2d.net//materials/detail/5f476357d5cc1b8bc6418ba7
Cl2Er2S2, 3.05 eV ,http://www.mathub2d.net//materials/detail/5f476358d5cc1b8bc6418f19
Br6Sm2, 3.04 eV ,http://www.mathub2d.net//materials/detail/5f476358d5cc1b8bc6418f04
Br2Lu2S2, 3.03 eV ,http://www.mathub2d.net//materials/detail/5f476358d5cc1b8bc6418eaf
Br6Sc2, 3.00 eV ,http://www.mathub2d.net//materials/detail/5f476357d5cc1b8bc6418af2
Bi2Br6, 2.99 eV ,http://www.mathub2d.net//materials/detail/5f476357d5cc1b8bc6418a63
Cl6Fe1Zr1, 2.98 eV ,http://www.mathub2d.net//materials/detail/5f476357d5cc1b8bc6418bd2
Ca1I4Pb1, 2.98 eV ,http://www.mathub2d.net//materials/detail/5f476358d5cc1b8bc6418f09
Cl2Ge1, 2.97 eV ,http://www.mathub2d.net//materials/detail/5f476357d5cc1b8bc6418b8f
I2Mg1, 2.96 eV ,http://www.mathub2d.net//materials/detail/5f476357d5cc1b8bc6418cb5
Br6Sb2, 2.95 eV ,http://www.mathub2d.net//materials/detail/5f476357d5cc1b8bc6418aef
Cl6In2, 2.94 eV ,http://www.mathub2d.net//materials/detail/5f476357d5cc1b8bc6418bd9
Br6In2, 2.94 eV ,http://www.mathub2d.net//materials/detail/5f476357d5cc1b8bc6418ad8
Br2Dy2S2, 2.93 eV ,http://www.mathub2d.net//materials/detail/5f476358d5cc1b8bc6418e92
Cl4Ge2, 2.92 eV ,http://www.mathub2d.net//materials/detail/5f476358d5cc1b8bc6418f81
Al1N1, 2.91 eV ,http://www.mathub2d.net//materials/detail/5f476357d5cc1b8bc6418a13
Al1N1, 2.90 eV ,http://www.mathub2d.net//materials/detail/5f476357d5cc1b8bc6418a14
Cl4Sn2, 2.89 eV ,http://www.mathub2d.net//materials/detail/5f476358d5cc1b8bc6418f8c
Cl2V1, 2.88 eV ,http://www.mathub2d.net//materials/detail/5f476357d5cc1b8bc6418bc0
Al2H2O4, 2.87 eV ,http://www.mathub2d.net//materials/detail/5f476358d5cc1b8bc6418e59
Br2Ga2O2, 2.86 eV ,http://www.mathub2d.net//materials/detail/5f476358d5cc1b8bc6418e98
Br6Ga2, 2.86 eV ,http://www.mathub2d.net//materials/detail/5f476357d5cc1b8bc6418ad3
Br2Zn1, 2.82 eV ,http://www.mathub2d.net//materials/detail/5f476357d5cc1b8bc6418ac7
Dy2I2S2, 2.80 eV ,http://www.mathub2d.net//materials/detail/5f476358d5cc1b8bc6418fad
Cl2Sn1, 2.76 eV ,http://www.mathub2d.net//materials/detail/5f476357d5cc1b8bc6418bb6
Br2Pb1, 2.75 eV ,http://www.mathub2d.net//materials/detail/5f476357d5cc1b8bc6418aa7
Se1Yb1, 2.75 eV ,http://www.mathub2d.net//materials/detail/5f476358d5cc1b8bc6418e18
Bi2Br6, 2.74 eV ,http://www.mathub2d.net//materials/detail/5f476357d5cc1b8bc6418a64
O6Sb2Tl2, 2.74 eV ,http://www.mathub2d.net//materials/detail/5f476358d5cc1b8bc6418da1
Cl2In2O2, 2.73 eV ,http://www.mathub2d.net//materials/detail/5f476358d5cc1b8bc6418f30
Br2V1, 2.73 eV ,http://www.mathub2d.net//materials/detail/5f476357d5cc1b8bc6418ac0
Al1P1S4, 2.73 eV ,http://www.mathub2d.net//materials/detail/5f476358d5cc1b8bc6418e4f
B1I3, 2.71 eV ,http://www.mathub2d.net//materials/detail/5f476357d5cc1b8bc6418a53
Bi2Cl2O2, 2.71 eV ,http://www.mathub2d.net//materials/detail/5f476358d5cc1b8bc6418e7c
Cl6Ga2, 2.71 eV ,http://www.mathub2d.net//materials/detail/5f476357d5cc1b8bc6418bd6
I2Pb1, 2.66 eV ,http://www.mathub2d.net//materials/detail/5f476357d5cc1b8bc6418cc1
I6Y2, 2.65 eV ,http://www.mathub2d.net//materials/detail/5f476358d5cc1b8bc6418d0c
Br2Ge1, 2.65 eV ,http://www.mathub2d.net//materials/detail/5f476357d5cc1b8bc6418a8d
Cl6Ir2, 2.64 eV ,http://www.mathub2d.net//materials/detail/5f476357d5cc1b8bc6418bdc
I6Sc2, 2.63 eV ,http://www.mathub2d.net//materials/detail/5f476358d5cc1b8bc6418d00
Cl2Ge1, 2.63 eV ,http://www.mathub2d.net//materials/detail/5f476357d5cc1b8bc6418b8e
I2S2Sm2, 2.63 eV ,http://www.mathub2d.net//materials/detail/5f476358d5cc1b8bc6418ccc
Cl6Ti2, 2.63 eV ,http://www.mathub2d.net//materials/detail/5f476357d5cc1b8bc6418bf7
H2Mg3O4, 2.62 eV ,http://www.mathub2d.net//materials/detail/5f476357d5cc1b8bc6418c86
O18Te8, 2.61 eV ,http://www.mathub2d.net//materials/detail/5f476358d5cc1b8bc6418d70
Cl6Ti2, 2.61 eV ,http://www.mathub2d.net//materials/detail/5f476357d5cc1b8bc6418bf8
H2Mg4O5, 2.59 eV ,http://www.mathub2d.net//materials/detail/5f476357d5cc1b8bc6418c87
As2Br6, 2.58 eV ,http://www.mathub2d.net//materials/detail/5f476357d5cc1b8bc6418a29
Al2Br6, 2.58 eV ,http://www.mathub2d.net//materials/detail/5f476357d5cc1b8bc6418a17
Br2Cd1, 2.58 eV ,http://www.mathub2d.net//materials/detail/5f476357d5cc1b8bc6418a81
H2Mg5O6, 2.57 eV ,http://www.mathub2d.net//materials/detail/5f476357d5cc1b8bc6418c88
I2V1, 2.57 eV ,http://www.mathub2d.net//materials/detail/5f476358d5cc1b8bc6418cdb
Bi2I6, 2.56 eV ,http://www.mathub2d.net//materials/detail/5f476357d5cc1b8bc6418a6b
Ga1N1, 2.54 eV ,http://www.mathub2d.net//materials/detail/5f476357d5cc1b8bc6418c58
Br2S2Sc2, 2.54 eV ,http://www.mathub2d.net//materials/detail/5f476358d5cc1b8bc6418ee8
Br2Sn1, 2.54 eV ,http://www.mathub2d.net//materials/detail/5f476357d5cc1b8bc6418ab6
Cl4Mn2, 2.54 eV ,http://www.mathub2d.net//materials/detail/5f476358d5cc1b8bc6418f86
Ga1N1, 2.53 eV ,http://www.mathub2d.net//materials/detail/5f476357d5cc1b8bc6418c59
I2Ti1, 2.52 eV ,http://www.mathub2d.net//materials/detail/5f476358d5cc1b8bc6418cd6
Cd1I2, 2.51 eV ,http://www.mathub2d.net//materials/detail/5f476357d5cc1b8bc6418b80
Cl6Cr2, 2.51 eV ,http://www.mathub2d.net//materials/detail/5f476357d5cc1b8bc6418bcd
Br6Sb2, 2.51 eV ,http://www.mathub2d.net//materials/detail/5f476357d5cc1b8bc6418af0
H2Mg2O3, 2.50 eV ,http://www.mathub2d.net//materials/detail/5f476357d5cc1b8bc6418c85
Cl2S2Sc2, 2.49 eV ,http://www.mathub2d.net//materials/detail/5f476358d5cc1b8bc6418f71
Ge1S1, 2.49 eV ,http://www.mathub2d.net//materials/detail/5f476357d5cc1b8bc6418c6d
Cl2F2, 2.48 eV ,http://www.mathub2d.net//materials/detail/5f476358d5cc1b8bc6418f1a
As8S6, 2.45 eV ,http://www.mathub2d.net//materials/detail/5f476358d5cc1b8bc6418e63
Ga2S2, 2.44 eV ,http://www.mathub2d.net//materials/detail/5f476357d5cc1b8bc6418c61
Cl2Hg1, 2.44 eV ,http://www.mathub2d.net//materials/detail/5f476357d5cc1b8bc6418b94
I6Sb2, 2.43 eV ,http://www.mathub2d.net//materials/detail/5f476358d5cc1b8bc6418cfe
Br4C16Ge2H48I4N4, 2.43 eV ,http://www.mathub2d.net//materials/detail/5f476358d5cc1b8bc6418ef8
Cl2Os1, 2.43 eV ,http://www.mathub2d.net//materials/detail/5f476357d5cc1b8bc6418ba5
I3P1, 2.42 eV ,http://www.mathub2d.net//materials/detail/5f476358d5cc1b8bc6418ce5
Al2I6, 2.42 eV ,http://www.mathub2d.net//materials/detail/5f476357d5cc1b8bc6418a1b
Ag1P2S6Sc1, 2.41 eV ,http://www.mathub2d.net//materials/detail/5f476356d5cc1b8bc6418a03
Bi2Br2O2, 2.41 eV ,http://www.mathub2d.net//materials/detail/5f476358d5cc1b8bc6418e77
Cl2Ru1, 2.41 eV ,http://www.mathub2d.net//materials/detail/5f476357d5cc1b8bc6418bb0
Ga2S2, 2.40 eV ,http://www.mathub2d.net//materials/detail/5f476357d5cc1b8bc6418c62
Br2In2O2, 2.40 eV ,http://www.mathub2d.net//materials/detail/5f476358d5cc1b8bc6418ea8
I6Sc2, 2.39 eV ,http://www.mathub2d.net//materials/detail/5f476358d5cc1b8bc6418d01
Bi2I6, 2.39 eV ,http://www.mathub2d.net//materials/detail/5f476357d5cc1b8bc6418a6c
Cl6Tl2, 2.38 eV ,http://www.mathub2d.net//materials/detail/5f476357d5cc1b8bc6418bf9
Cl6Rh2, 2.38 eV ,http://www.mathub2d.net//materials/detail/5f476357d5cc1b8bc6418bee
Cl2Sn1, 2.38 eV ,http://www.mathub2d.net//materials/detail/5f476357d5cc1b8bc6418bb5
Er2I2Se2, 2.37 eV ,http://www.mathub2d.net//materials/detail/5f476358d5cc1b8bc6418faf
I2Pb1, 2.34 eV ,http://www.mathub2d.net//materials/detail/5f476357d5cc1b8bc6418cc0
Br2Ge1, 2.34 eV ,http://www.mathub2d.net//materials/detail/5f476357d5cc1b8bc6418a8c
Al2Cl2S2, 2.34 eV ,http://www.mathub2d.net//materials/detail/5f476358d5cc1b8bc6418e56
Cl2Hf2N2, 2.33 eV ,http://www.mathub2d.net//materials/detail/5f476357d5cc1b8bc6418b93
Ag2Bi2O4, 2.29 eV ,http://www.mathub2d.net//materials/detail/5f476358d5cc1b8bc6418e42
Ge1Se1, 2.28 eV ,http://www.mathub2d.net//materials/detail/5f476357d5cc1b8bc6418c70
B1P1S4, 2.28 eV ,http://www.mathub2d.net//materials/detail/5f476358d5cc1b8bc6418e73
Pb1S2, 2.28 eV ,http://www.mathub2d.net//materials/detail/5f476358d5cc1b8bc6418db5
Br6Ir2, 2.28 eV ,http://www.mathub2d.net//materials/detail/5f476357d5cc1b8bc6418ad9
Br2Mn1, 2.28 eV ,http://www.mathub2d.net//materials/detail/5f476357d5cc1b8bc6418a9b
Al2Br2S2, 2.27 eV ,http://www.mathub2d.net//materials/detail/5f476358d5cc1b8bc6418e52
Br6Ti2, 2.25 eV ,http://www.mathub2d.net//materials/detail/5f476357d5cc1b8bc6418af5
S1Sn1, 2.25 eV ,http://www.mathub2d.net//materials/detail/5f476358d5cc1b8bc6418df1
H2Ni1O2, 2.24 eV ,http://www.mathub2d.net//materials/detail/5f476357d5cc1b8bc6418c8a
As2I6, 2.24 eV ,http://www.mathub2d.net//materials/detail/5f476357d5cc1b8bc6418a31
Al2I2O2, 2.23 eV ,http://www.mathub2d.net//materials/detail/5f476358d5cc1b8bc6418e5b
I6Sb2, 2.23 eV ,http://www.mathub2d.net//materials/detail/5f476358d5cc1b8bc6418cff
As2I6, 2.22 eV ,http://www.mathub2d.net//materials/detail/5f476357d5cc1b8bc6418a30
O2Pt1, 2.21 eV ,http://www.mathub2d.net//materials/detail/5f476358d5cc1b8bc6418d7d
F2O2U1, 2.21 eV ,http://www.mathub2d.net//materials/detail/5f476357d5cc1b8bc6418c41
Br2Os1, 2.20 eV ,http://www.mathub2d.net//materials/detail/5f476357d5cc1b8bc6418aa5
Br2Ru1, 2.20 eV ,http://www.mathub2d.net//materials/detail/5f476357d5cc1b8bc6418ab1
I2Zn1, 2.19 eV ,http://www.mathub2d.net//materials/detail/5f476358d5cc1b8bc6418ce1
Br6In2, 2.18 eV ,http://www.mathub2d.net//materials/detail/5f476357d5cc1b8bc6418ad7
H2Si2, 2.18 eV ,http://www.mathub2d.net//materials/detail/5f476357d5cc1b8bc6418c8c
Se1Sn1, 2.18 eV ,http://www.mathub2d.net//materials/detail/5f476358d5cc1b8bc6418e17
Br2Sn1, 2.17 eV ,http://www.mathub2d.net//materials/detail/5f476357d5cc1b8bc6418ab5
Cl2Hf2N2, 2.14 eV ,http://www.mathub2d.net//materials/detail/5f476358d5cc1b8bc6418f27
I2Sn1, 2.14 eV ,http://www.mathub2d.net//materials/detail/5f476358d5cc1b8bc6418cd0
Ge2O6Ti2, 2.13 eV ,http://www.mathub2d.net//materials/detail/5f476357d5cc1b8bc6418c7b
Br2Hf2N2, 2.12 eV ,http://www.mathub2d.net//materials/detail/5f476358d5cc1b8bc6418e9f
Ge1O1, 2.12 eV ,http://www.mathub2d.net//materials/detail/5f476357d5cc1b8bc6418c6a
Al2S2, 2.10 eV ,http://www.mathub2d.net//materials/detail/5f476357d5cc1b8bc6418a1f
Ge1I2, 2.10 eV ,http://www.mathub2d.net//materials/detail/5f476357d5cc1b8bc6418c69
Cl2Hg1, 2.09 eV ,http://www.mathub2d.net//materials/detail/5f476357d5cc1b8bc6418b95
Bi2I2S2, 2.05 eV ,http://www.mathub2d.net//materials/detail/5f476358d5cc1b8bc6418e82
I2Sn1, 2.05 eV ,http://www.mathub2d.net//materials/detail/5f476358d5cc1b8bc6418ccf
Bi2I2O2, 2.04 eV ,http://www.mathub2d.net//materials/detail/5f476358d5cc1b8bc6418e80
Br6Rh2, 2.03 eV ,http://www.mathub2d.net//materials/detail/5f476357d5cc1b8bc6418aec
Mg2P2Se6, 2.03 eV ,http://www.mathub2d.net//materials/detail/5f476358d5cc1b8bc6418d2a
Br2Hg1, 2.03 eV ,http://www.mathub2d.net//materials/detail/5f476357d5cc1b8bc6418a92
I2Os1, 2.03 eV ,http://www.mathub2d.net//materials/detail/5f476357d5cc1b8bc6418cbe
Br2Hf2N2, 2.02 eV ,http://www.mathub2d.net//materials/detail/5f476357d5cc1b8bc6418a91
Al2Se2, 2.01 eV ,http://www.mathub2d.net//materials/detail/5f476357d5cc1b8bc6418a20
Ag1P2Se6Tm1, 2.00 eV ,http://www.mathub2d.net//materials/detail/5f476356d5cc1b8bc6418a05
Hf1O2, 1.99 eV ,http://www.mathub2d.net//materials/detail/5f476357d5cc1b8bc6418c92
I2Ru1, 1.99 eV ,http://www.mathub2d.net//materials/detail/5f476358d5cc1b8bc6418cca
Ag1Er1P2Se6, 1.98 eV ,http://www.mathub2d.net//materials/detail/5f476356d5cc1b8bc64189ff
Pb1S1, 1.98 eV ,http://www.mathub2d.net//materials/detail/5f476358d5cc1b8bc6418db3
Al6I2Te6, 1.98 eV ,http://www.mathub2d.net//materials/detail/5f476358d5cc1b8bc6418e5e
Ag1P2Sc1Se6, 1.97 eV ,http://www.mathub2d.net//materials/detail/5f476356d5cc1b8bc6418a04
Cd2P2S6, 1.96 eV ,http://www.mathub2d.net//materials/detail/5f476357d5cc1b8bc6418b84
Br2In2S2, 1.96 eV ,http://www.mathub2d.net//materials/detail/5f476358d5cc1b8bc6418ea9
O2Pd1, 1.96 eV ,http://www.mathub2d.net//materials/detail/5f476358d5cc1b8bc6418d7a
Al2Cl4, 1.95 eV ,http://www.mathub2d.net//materials/detail/5f476358d5cc1b8bc6418e58
Br2Sc2Se2, 1.94 eV ,http://www.mathub2d.net//materials/detail/5f476358d5cc1b8bc6418ef0
C1F2Si1, 1.93 eV ,http://www.mathub2d.net//materials/detail/5f476357d5cc1b8bc6418b0e
I6Ir2, 1.93 eV ,http://www.mathub2d.net//materials/detail/5f476358d5cc1b8bc6418ce8
N2Si2, 1.91 eV ,http://www.mathub2d.net//materials/detail/5f476358d5cc1b8bc6418d4e
Cl2N2Zr2, 1.91 eV ,http://www.mathub2d.net//materials/detail/5f476357d5cc1b8bc6418ba0
Ga1P1, 1.90 eV ,http://www.mathub2d.net//materials/detail/5f476357d5cc1b8bc6418c5a
Pb1Se2, 1.89 eV ,http://www.mathub2d.net//materials/detail/5f476358d5cc1b8bc6418db8
I6In2, 1.89 eV ,http://www.mathub2d.net//materials/detail/5f476358d5cc1b8bc6418ce6
Fe1Ga2S4, 1.89 eV ,http://www.mathub2d.net//materials/detail/5f476357d5cc1b8bc6418c44
Cl2N2Sn2, 1.88 eV ,http://www.mathub2d.net//materials/detail/5f476358d5cc1b8bc6418f48
Sn1Te1, 1.88 eV ,http://www.mathub2d.net//materials/detail/5f476358d5cc1b8bc6418e2d
Te1Zn1, 1.87 eV ,http://www.mathub2d.net//materials/detail/5f476358d5cc1b8bc6418e35