Formula,pbe_band_gap,url
Br2Cu1, 0.00 eV ,http://www.mathub2d.net//materials/detail/5f476357d5cc1b8bc6418a87
Ag1Br2, 0.00 eV ,http://www.mathub2d.net//materials/detail/5f47634ad5cc1b8bc64189fb
Cl6Nb2, 0.00 eV ,http://www.mathub2d.net//materials/detail/5f476357d5cc1b8bc6418be1
Fe2Se4, 0.00 eV ,http://www.mathub2d.net//materials/detail/5f476358d5cc1b8bc6418fb8
Cl2Co2Se2, 0.00 eV ,http://www.mathub2d.net//materials/detail/5f476358d5cc1b8bc6418f0f
C2F2Hf3, 0.00 eV ,http://www.mathub2d.net//materials/detail/5f476357d5cc1b8bc6418b41
I2Ir1, 0.00 eV ,http://www.mathub2d.net//materials/detail/5f476357d5cc1b8bc6418cb2
C1S2Ta2, 0.00 eV ,http://www.mathub2d.net//materials/detail/5f476357d5cc1b8bc6418b32
Cl2S2Zr2, 0.00 eV ,http://www.mathub2d.net//materials/detail/5f476358d5cc1b8bc6418f78
Cr2Se6, 0.00 eV ,http://www.mathub2d.net//materials/detail/5f476358d5cc1b8bc6418fa7
O2Sc1, 0.00 eV ,http://www.mathub2d.net//materials/detail/5f476358d5cc1b8bc6418d89
Cu1O2, 0.00 eV ,http://www.mathub2d.net//materials/detail/5f476357d5cc1b8bc6418c32
Cu1I2, 0.00 eV ,http://www.mathub2d.net//materials/detail/5f476357d5cc1b8bc6418c2f
Br2S2Ta2, 0.00 eV ,http://www.mathub2d.net//materials/detail/5f476358d5cc1b8bc6418eea
Cl4Ti2, 0.00 eV ,http://www.mathub2d.net//materials/detail/5f476358d5cc1b8bc6418f8d
Br2S2Ti2, 0.00 eV ,http://www.mathub2d.net//materials/detail/5f476358d5cc1b8bc6418eeb
Br2Ni2S2, 0.00 eV ,http://www.mathub2d.net//materials/detail/5f476358d5cc1b8bc6418ecc
Mn1Se2, 0.00 eV ,http://www.mathub2d.net//materials/detail/5f476358d5cc1b8bc6418d30
C1H2O2W2, 0.00 eV ,http://www.mathub2d.net//materials/detail/5f476357d5cc1b8bc6418b1d
C1O2Y2, 0.00 eV ,http://www.mathub2d.net//materials/detail/5f476357d5cc1b8bc6418b30
Cl2Nb2Se2, 0.00 eV ,http://www.mathub2d.net//materials/detail/5f476358d5cc1b8bc6418f51
Br2Mo1, 0.00 eV ,http://www.mathub2d.net//materials/detail/5f476357d5cc1b8bc6418a9d
Cl2In1, 0.00 eV ,http://www.mathub2d.net//materials/detail/5f476357d5cc1b8bc6418b97
S2Ta1, 0.00 eV ,http://www.mathub2d.net//materials/detail/5f476358d5cc1b8bc6418df9
Br4Sc2, 0.00 eV ,http://www.mathub2d.net//materials/detail/5f476358d5cc1b8bc6418f00
Cl2Se2Ta2, 0.00 eV ,http://www.mathub2d.net//materials/detail/5f476358d5cc1b8bc6418f7b
Cl2Re1, 0.00 eV ,http://www.mathub2d.net//materials/detail/5f476357d5cc1b8bc6418bad
Hg1O2, 0.00 eV ,http://www.mathub2d.net//materials/detail/5f476357d5cc1b8bc6418ca6
Co1Ga2S4, 0.00 eV ,http://www.mathub2d.net//materials/detail/5f476357d5cc1b8bc6418c07
Pt1Se2, 0.00 eV ,http://www.mathub2d.net//materials/detail/5f476358d5cc1b8bc6418dca
C1H2Mo2O2, 0.00 eV ,http://www.mathub2d.net//materials/detail/5f476357d5cc1b8bc6418b17
Br6Os2, 0.00 eV ,http://www.mathub2d.net//materials/detail/5f476357d5cc1b8bc6418ae3
Mo1O3, 0.00 eV ,http://www.mathub2d.net//materials/detail/5f476358d5cc1b8bc6418d3a
Au2Cl6, 0.00 eV ,http://www.mathub2d.net//materials/detail/5f476357d5cc1b8bc6418a49
Br2Nb1, 0.00 eV ,http://www.mathub2d.net//materials/detail/5f476357d5cc1b8bc6418aa1
Ge6N2, 0.00 eV ,http://www.mathub2d.net//materials/detail/5f476357d5cc1b8bc6418c81
I2Ta1, 0.00 eV ,http://www.mathub2d.net//materials/detail/5f476358d5cc1b8bc6418cd3
Ni2Te2, 0.00 eV ,http://www.mathub2d.net//materials/detail/5f476358d5cc1b8bc6418d6f
Cl2Ni2O2, 0.00 eV ,http://www.mathub2d.net//materials/detail/5f476358d5cc1b8bc6418f52
C1H2O2Zr2, 0.00 eV ,http://www.mathub2d.net//materials/detail/5f476357d5cc1b8bc6418b1f
Ni1Se2, 0.00 eV ,http://www.mathub2d.net//materials/detail/5f476358d5cc1b8bc6418d67
N2Pb6, 0.00 eV ,http://www.mathub2d.net//materials/detail/5f476358d5cc1b8bc6418d4d
Cl2N2Pb2, 0.00 eV ,http://www.mathub2d.net//materials/detail/5f476358d5cc1b8bc6418f42
Mn1O2, 0.00 eV ,http://www.mathub2d.net//materials/detail/5f476358d5cc1b8bc6418d2c
Pt2S2, 0.00 eV ,http://www.mathub2d.net//materials/detail/5f476358d5cc1b8bc6418dcd
Re1Se2, 0.00 eV ,http://www.mathub2d.net//materials/detail/5f476358d5cc1b8bc6418dd5
Br2Tl1, 0.00 eV ,http://www.mathub2d.net//materials/detail/5f476357d5cc1b8bc6418abf
Cl4Mo2, 0.00 eV ,http://www.mathub2d.net//materials/detail/5f476358d5cc1b8bc6418f87
Ca2N1, 0.00 eV ,http://www.mathub2d.net//materials/detail/5f476357d5cc1b8bc6418b7c
Cu2Te2, 0.00 eV ,http://www.mathub2d.net//materials/detail/5f476357d5cc1b8bc6418c3f
Cl2Fe1, 0.00 eV ,http://www.mathub2d.net//materials/detail/5f476357d5cc1b8bc6418b8b